# vtk DataFile Version 3.0
flash 2d grid and solution
ASCII
DATASET RECTILINEAR_GRID
DIMENSIONS 33 33 1
X_COORDINATES 33 float
0 0.03125 0.0625 0.09375 0.125 0.15625 0.1875 0.21875 0.25 0.28125 0.3125 0.34375 0.375 0.40625 0.4375 0.46875 0.5 0.53125 0.5625 0.59375 0.625 0.65625 0.6875 0.71875 0.75 0.78125 0.8125 0.84375 0.875 0.90625 0.9375 0.96875 1 
Y_COORDINATES 33 float
0 0.03125 0.0625 0.09375 0.125 0.15625 0.1875 0.21875 0.25 0.28125 0.3125 0.34375 0.375 0.40625 0.4375 0.46875 0.5 0.53125 0.5625 0.59375 0.625 0.65625 0.6875 0.71875 0.75 0.78125 0.8125 0.84375 0.875 0.90625 0.9375 0.96875 1 
Z_COORDINATES 2 float
0.0 0.0
CELL_DATA 1024
FIELD FieldData 1
T 1 1024 float
372.979 372.936 372.892 372.847 372.801 372.752 372.702 372.648 372.59 372.528 372.461 372.388 372.308 372.22 372.122 372.014 371.893 371.756 371.601 371.423 371.216 370.974 370.685 370.332 369.892 369.324 368.554 367.443 365.674 362.402 354.923 333.021 372.936 372.807 372.677 372.543 372.404 372.26 372.108 371.946 371.774 371.589 371.388 371.17 370.931 370.669 370.378 370.055 369.694 369.287 368.825 368.296 367.685 366.969 366.117 365.085 363.805 362.171 360.004 356.988 352.524 345.413 333.192 311.205 372.894 372.681 372.465 372.243 372.014 371.775 371.523 371.256 370.971 370.665 370.333 369.973 369.579 369.145 368.667 368.135 367.541 366.873 366.116 365.253 364.258 363.099 361.729 360.085 358.073 355.552 352.304 347.981 342.022 333.535 321.228 303.812 372.853 372.558 372.258 371.951 371.634 371.302 370.954 370.584 370.19 369.766 369.307 368.809 368.265 367.668 367.008 366.277 365.462 364.547 363.515 362.341 360.996 359.439 357.616 355.454 352.85 349.66 345.678 340.609 334.048 325.475 314.374 300.626 372.814 372.439 372.059 371.67 371.267 370.847 370.405 369.937 369.437 368.901 368.321 367.692 367.005 366.252 365.422 364.503 363.481 362.339 361.055 359.601 357.946 356.044 353.842 351.263 348.213 344.561 340.139 334.731 328.085 319.944 310.167 298.942 372.776 372.326 371.87 371.402 370.918 370.414 369.883 369.322 368.722 368.079 367.385 366.632 365.811 364.913 363.924 362.833 361.622 360.273 358.763 357.064 355.141 352.952 350.443 347.546 344.177 340.232 335.584 330.093 323.615 316.05 307.408 297.917 372.741 372.22 371.691 371.15 370.59 370.006 369.393 368.743 368.051 367.308 366.508 365.64 364.696 363.663 362.53 361.281 359.901 358.368 356.661 354.75 352.603 350.179 347.431 344.3 340.718 336.605 331.874 326.44 320.233 313.231 305.5 297.234 372.708 372.121 371.526 370.916 370.286 369.629 368.939 368.208 367.43 366.596 365.698 364.725 363.668 362.514 361.251 359.862 358.331 356.639 354.761 352.672 350.341 347.732 344.803 341.506 337.789 333.595 328.868 323.56 317.647 311.142 304.125 296.752 372.678 372.031 371.375 370.703 370.008 369.285 368.525 367.72 366.864 365.948 364.961 363.895 362.737 361.475 360.097 358.585 356.924 355.094 353.073 350.837 348.358 345.604 342.541 339.132 335.338 331.119 326.442 321.287 315.651 309.566 303.108 296.399 372.651 371.951 371.24 370.512 369.76 368.977 368.154 367.285 366.36 365.37 364.305 363.156 361.909 360.554 359.075 357.458 355.686 353.74 351.601 349.245 346.649 343.785 340.626 337.144 333.31 329.1 324.496 319.493 314.103 308.364 302.342 296.136 372.628 371.88 371.122 370.345 369.543 368.708 367.831 366.905 365.92 364.866 363.735 362.513 361.191 359.755 358.192 356.486 354.621 352.58 350.345 347.894 345.207 342.261 339.035 335.508 331.659 327.475 322.95 318.086 312.905 307.444 301.761 295.937 372.608 371.821 371.022 370.204 369.36 368.481 367.558 366.584 365.548 364.441 363.253 361.972 360.587 359.084 357.451 355.672 353.733 351.616 349.304 346.779 344.023 341.018 337.746 334.192 330.343 326.192 321.741 316.998 311.987 306.744 301.323 295.787 372.592 371.772 370.941 370.09 369.211 368.297 367.337 366.324 365.247 364.098 362.864 361.536 360.1 358.544 356.856 355.02 353.022 350.845 348.475 345.895 343.089 340.042 336.739 333.171 329.328 325.211 320.822 316.177 311.3 306.224 300.998 295.677 372.58 371.736 370.88 370.003 369.099 368.157 367.17 366.127 365.02 363.838 362.57 361.206 359.733 358.138 356.408 354.53 352.488 350.269 347.857 345.238 342.396 339.32 335.999 332.423 328.59 324.5 320.161 315.59 310.81 305.855 300.768 295.599 372.572 371.711 370.838 369.945 369.023 368.064 367.057 365.995 364.868 363.664 362.374 360.985 359.487 357.866 356.109 354.203 352.133 349.886 347.447 344.802 341.938 338.845 335.512 331.933 328.107 324.037 319.733 315.211 310.495 305.619 300.621 295.549 372.568 371.699 370.818 369.916 368.985 368.017 367.001 365.929 364.791 363.577 362.275 360.875 359.364 357.729 355.959 354.039 351.956 349.695 347.242 344.585 341.711 338.609 335.27 331.691 327.869 323.81 319.522 315.025 310.341 305.503 300.55 295.525 372.568 371.699 370.818 369.916 368.985 368.017 367.001 365.929 364.791 363.577 362.275 360.875 359.364 357.729 355.959 354.039 351.956 349.695 347.242 344.585 341.711 338.609 335.27 331.691 327.869 323.81 319.522 315.025 310.341 305.503 300.55 295.525 372.572 371.711 370.838 369.945 369.023 368.064 367.057 365.995 364.868 363.664 362.374 360.985 359.487 357.866 356.109 354.203 352.133 349.886 347.447 344.802 341.938 338.845 335.512 331.933 328.107 324.037 319.733 315.211 310.495 305.619 300.621 295.549 372.58 371.736 370.88 370.003 369.099 368.157 367.17 366.127 365.02 363.838 362.57 361.206 359.733 358.138 356.408 354.53 352.488 350.269 347.857 345.238 342.396 339.32 335.999 332.423 328.59 324.5 320.161 315.59 310.81 305.855 300.768 295.599 372.592 371.772 370.941 370.09 369.211 368.297 367.337 366.324 365.247 364.098 362.864 361.536 360.1 358.544 356.856 355.02 353.022 350.845 348.475 345.895 343.089 340.042 336.739 333.171 329.328 325.211 320.822 316.177 311.3 306.224 300.998 295.677 372.608 371.821 371.022 370.204 369.36 368.481 367.558 366.584 365.548 364.441 363.253 361.972 360.587 359.084 357.451 355.672 353.733 351.616 349.304 346.779 344.023 341.018 337.746 334.192 330.343 326.192 321.741 316.998 311.987 306.744 301.323 295.787 372.628 371.88 371.122 370.345 369.543 368.708 367.831 366.905 365.92 364.866 363.735 362.513 361.191 359.755 358.192 356.486 354.621 352.58 350.345 347.894 345.207 342.261 339.035 335.508 331.659 327.475 322.95 318.086 312.905 307.444 301.761 295.937 372.651 371.951 371.24 370.512 369.76 368.977 368.154 367.285 366.36 365.37 364.305 363.156 361.909 360.554 359.075 357.458 355.686 353.74 351.601 349.245 346.649 343.785 340.626 337.144 333.31 329.1 324.496 319.493 314.103 308.364 302.342 296.136 372.678 372.031 371.375 370.703 370.008 369.285 368.525 367.72 366.864 365.948 364.961 363.895 362.737 361.475 360.097 358.585 356.924 355.094 353.073 350.837 348.358 345.604 342.541 339.132 335.338 331.119 326.442 321.287 315.651 309.566 303.108 296.399 372.708 372.121 371.526 370.916 370.286 369.629 368.939 368.208 367.43 366.596 365.698 364.725 363.668 362.514 361.251 359.862 358.331 356.639 354.761 352.672 350.341 347.732 344.803 341.506 337.789 333.595 328.868 323.56 317.647 311.142 304.125 296.752 372.741 372.22 371.691 371.15 370.59 370.006 369.393 368.743 368.051 367.308 366.508 365.64 364.696 363.663 362.53 361.281 359.901 358.368 356.661 354.75 352.603 350.179 347.431 344.3 340.718 336.605 331.874 326.44 320.233 313.231 305.5 297.234 372.776 372.326 371.87 371.402 370.918 370.414 369.883 369.322 368.722 368.079 367.385 366.632 365.811 364.913 363.924 362.833 361.622 360.273 358.763 357.064 355.141 352.952 350.443 347.546 344.177 340.232 335.584 330.093 323.615 316.05 307.408 297.917 372.814 372.439 372.059 371.67 371.267 370.847 370.405 369.937 369.437 368.901 368.321 367.692 367.005 366.252 365.422 364.503 363.481 362.339 361.055 359.601 357.946 356.044 353.842 351.263 348.213 344.561 340.139 334.731 328.085 319.944 310.167 298.942 372.853 372.558 372.258 371.951 371.634 371.302 370.954 370.584 370.19 369.766 369.307 368.809 368.265 367.668 367.008 366.277 365.462 364.547 363.515 362.341 360.996 359.439 357.616 355.454 352.85 349.66 345.678 340.609 334.048 325.475 314.374 300.626 372.894 372.681 372.465 372.243 372.014 371.775 371.523 371.256 370.971 370.665 370.333 369.973 369.579 369.145 368.667 368.135 367.541 366.873 366.116 365.253 364.258 363.099 361.729 360.085 358.073 355.552 352.304 347.981 342.022 333.535 321.228 303.812 372.936 372.807 372.677 372.543 372.404 372.26 372.108 371.946 371.774 371.589 371.388 371.17 370.931 370.669 370.378 370.055 369.694 369.287 368.825 368.296 367.685 366.969 366.117 365.085 363.805 362.171 360.004 356.988 352.524 345.413 333.192 311.205 372.979 372.936 372.892 372.847 372.801 372.752 372.702 372.648 372.59 372.528 372.461 372.388 372.308 372.22 372.122 372.014 371.893 371.756 371.601 371.423 371.216 370.974 370.685 370.332 369.892 369.324 368.554 367.443 365.674 362.402 354.923 333.021 
