# vtk DataFile Version 3.0
flash 2d grid and solution
ASCII
DATASET RECTILINEAR_GRID
DIMENSIONS 33 33 1
X_COORDINATES 33 float
0 0.03125 0.0625 0.09375 0.125 0.15625 0.1875 0.21875 0.25 0.28125 0.3125 0.34375 0.375 0.40625 0.4375 0.46875 0.5 0.53125 0.5625 0.59375 0.625 0.65625 0.6875 0.71875 0.75 0.78125 0.8125 0.84375 0.875 0.90625 0.9375 0.96875 1 
Y_COORDINATES 33 float
0 0.03125 0.0625 0.09375 0.125 0.15625 0.1875 0.21875 0.25 0.28125 0.3125 0.34375 0.375 0.40625 0.4375 0.46875 0.5 0.53125 0.5625 0.59375 0.625 0.65625 0.6875 0.71875 0.75 0.78125 0.8125 0.84375 0.875 0.90625 0.9375 0.96875 1 
Z_COORDINATES 2 float
0.0 0.0
CELL_DATA 1024
FIELD FieldData 1
T 1 1024 float
372.979 372.936 372.892 372.847 372.801 372.753 372.702 372.648 372.59 372.528 372.461 372.388 372.308 372.22 372.123 372.014 371.893 371.756 371.601 371.423 371.217 370.974 370.685 370.333 369.893 369.324 368.554 367.443 365.674 362.402 354.923 333.021 372.936 372.808 372.677 372.543 372.405 372.26 372.108 371.947 371.775 371.589 371.389 371.171 370.932 370.67 370.379 370.056 369.695 369.288 368.826 368.297 367.686 366.969 366.118 365.086 363.806 362.172 360.005 356.989 352.525 345.414 333.193 311.205 372.894 372.681 372.465 372.244 372.015 371.776 371.524 371.257 370.972 370.666 370.335 369.974 369.58 369.147 368.668 368.137 367.542 366.874 366.118 365.255 364.259 363.1 361.73 360.086 358.074 355.553 352.305 347.982 342.023 333.535 321.229 303.812 372.853 372.558 372.259 371.952 371.635 371.304 370.955 370.586 370.191 369.767 369.309 368.811 368.267 367.67 367.01 366.279 365.464 364.549 363.517 362.343 360.998 359.44 357.617 355.455 352.851 349.662 345.679 340.611 334.049 325.476 314.374 300.626 372.814 372.44 372.06 371.671 371.269 370.849 370.407 369.939 369.44 368.903 368.324 367.694 367.008 366.254 365.425 364.506 363.484 362.342 361.057 359.604 357.948 356.047 353.844 351.265 348.215 344.563 340.14 334.733 328.086 319.945 310.168 298.942 372.776 372.327 371.871 371.403 370.92 370.416 369.885 369.324 368.725 368.082 367.388 366.635 365.814 364.916 363.927 362.836 361.625 360.276 358.766 357.067 355.144 352.955 350.445 347.548 344.179 340.234 335.586 330.094 323.616 316.051 307.409 297.917 372.741 372.221 371.692 371.151 370.592 370.008 369.395 368.746 368.054 367.311 366.511 365.643 364.699 363.667 362.533 361.285 359.904 358.372 356.664 354.753 352.606 350.182 347.434 344.303 340.72 336.607 331.876 326.442 320.235 313.232 305.5 297.234 372.708 372.122 371.527 370.918 370.288 369.631 368.941 368.211 367.433 366.599 365.701 364.729 363.672 362.518 361.255 359.866 358.335 356.643 354.765 352.676 350.345 347.735 344.806 341.509 337.792 333.598 328.87 323.562 317.648 311.144 304.126 296.752 372.678 372.032 371.376 370.705 370.01 369.287 368.527 367.723 366.868 365.951 364.965 363.899 362.741 361.479 360.101 358.589 356.928 355.098 353.077 350.841 348.362 345.608 342.545 339.136 335.341 331.122 326.445 321.289 315.652 309.568 303.109 296.399 372.652 371.952 371.241 370.514 369.762 368.979 368.157 367.288 366.363 365.374 364.309 363.16 361.914 360.558 359.079 357.463 355.69 353.745 351.605 349.249 346.653 343.789 340.63 337.148 333.313 329.103 324.499 319.495 314.105 308.365 302.343 296.136 372.628 371.881 371.123 370.347 369.546 368.711 367.834 366.908 365.923 364.87 363.739 362.518 361.196 359.76 358.197 356.491 354.626 352.585 350.349 347.898 345.211 342.266 339.039 335.511 331.662 327.478 322.952 318.089 312.907 307.445 301.762 295.937 372.608 371.822 371.023 370.206 369.362 368.484 367.561 366.587 365.552 364.445 363.257 361.977 360.592 359.089 357.456 355.677 353.738 351.62 349.308 346.784 344.028 341.022 337.75 334.196 330.346 326.196 321.743 317 311.988 306.746 301.324 295.788 372.592 371.773 370.943 370.092 369.214 368.299 367.34 366.328 365.251 364.102 362.869 361.54 360.105 358.549 356.861 355.025 353.027 350.851 348.48 345.9 343.094 340.046 336.743 333.175 329.332 325.214 320.825 316.18 311.301 306.226 300.999 295.677 372.58 371.737 370.881 370.006 369.101 368.16 367.173 366.131 365.024 363.842 362.575 361.211 359.738 358.143 356.413 354.535 352.494 350.274 347.862 345.243 342.401 339.325 336.003 332.427 328.593 324.503 320.164 315.592 310.812 305.857 300.769 295.599 372.572 371.712 370.84 369.948 369.026 368.067 367.061 365.999 364.872 363.668 362.378 360.99 359.492 357.871 356.114 354.208 352.138 349.891 347.452 344.807 341.943 338.849 335.516 331.937 328.111 324.041 319.736 315.213 310.497 305.62 300.622 295.549 372.568 371.7 370.82 369.918 368.988 368.02 367.005 365.933 364.795 363.581 362.28 360.88 359.369 357.735 355.964 354.044 351.961 349.7 347.247 344.59 341.716 338.613 335.275 331.695 327.873 323.813 319.525 315.027 310.343 305.505 300.551 295.525 372.568 371.7 370.82 369.918 368.988 368.02 367.005 365.933 364.795 363.581 362.28 360.88 359.369 357.735 355.964 354.044 351.961 349.7 347.247 344.59 341.716 338.613 335.275 331.695 327.873 323.813 319.525 315.027 310.343 305.505 300.551 295.525 372.572 371.712 370.84 369.948 369.026 368.067 367.061 365.999 364.872 363.668 362.378 360.99 359.492 357.871 356.114 354.208 352.138 349.891 347.452 344.807 341.943 338.849 335.516 331.937 328.111 324.041 319.736 315.213 310.497 305.62 300.622 295.549 372.58 371.737 370.881 370.006 369.101 368.16 367.173 366.131 365.024 363.842 362.575 361.211 359.738 358.143 356.413 354.535 352.494 350.274 347.862 345.243 342.401 339.325 336.003 332.427 328.593 324.503 320.164 315.592 310.812 305.857 300.769 295.599 372.592 371.773 370.943 370.092 369.214 368.299 367.34 366.328 365.251 364.102 362.869 361.54 360.105 358.549 356.861 355.025 353.027 350.851 348.48 345.9 343.094 340.046 336.743 333.175 329.332 325.214 320.825 316.18 311.301 306.226 300.999 295.677 372.608 371.822 371.023 370.206 369.362 368.484 367.561 366.587 365.552 364.445 363.257 361.977 360.592 359.089 357.456 355.677 353.738 351.62 349.308 346.784 344.028 341.022 337.75 334.196 330.346 326.196 321.743 317 311.988 306.746 301.324 295.788 372.628 371.881 371.123 370.347 369.546 368.711 367.834 366.908 365.923 364.87 363.739 362.518 361.196 359.76 358.197 356.491 354.626 352.585 350.349 347.898 345.211 342.266 339.039 335.511 331.662 327.478 322.952 318.089 312.907 307.445 301.762 295.937 372.652 371.952 371.241 370.514 369.762 368.979 368.157 367.288 366.363 365.374 364.309 363.16 361.914 360.558 359.079 357.463 355.69 353.745 351.605 349.249 346.653 343.789 340.63 337.148 333.313 329.103 324.499 319.495 314.105 308.365 302.343 296.136 372.678 372.032 371.376 370.705 370.01 369.287 368.527 367.723 366.868 365.951 364.965 363.899 362.741 361.479 360.101 358.589 356.928 355.098 353.077 350.841 348.362 345.608 342.545 339.136 335.341 331.122 326.445 321.289 315.652 309.568 303.109 296.399 372.708 372.122 371.527 370.918 370.288 369.631 368.941 368.211 367.433 366.599 365.701 364.729 363.672 362.518 361.255 359.866 358.335 356.643 354.765 352.676 350.345 347.735 344.806 341.509 337.792 333.598 328.87 323.562 317.648 311.144 304.126 296.752 372.741 372.221 371.692 371.151 370.592 370.008 369.395 368.746 368.054 367.311 366.511 365.643 364.699 363.667 362.533 361.285 359.904 358.372 356.664 354.753 352.606 350.182 347.434 344.303 340.72 336.607 331.876 326.442 320.235 313.232 305.5 297.234 372.776 372.327 371.871 371.403 370.92 370.416 369.885 369.324 368.725 368.082 367.388 366.635 365.814 364.916 363.927 362.836 361.625 360.276 358.766 357.067 355.144 352.955 350.445 347.548 344.179 340.234 335.586 330.094 323.616 316.051 307.409 297.917 372.814 372.44 372.06 371.671 371.269 370.849 370.407 369.939 369.44 368.903 368.324 367.694 367.008 366.254 365.425 364.506 363.484 362.342 361.057 359.604 357.948 356.047 353.844 351.265 348.215 344.563 340.14 334.733 328.086 319.945 310.168 298.942 372.853 372.558 372.259 371.952 371.635 371.304 370.955 370.586 370.191 369.767 369.309 368.811 368.267 367.67 367.01 366.279 365.464 364.549 363.517 362.343 360.998 359.44 357.617 355.455 352.851 349.662 345.679 340.611 334.049 325.476 314.374 300.626 372.894 372.681 372.465 372.244 372.015 371.776 371.524 371.257 370.972 370.666 370.335 369.974 369.58 369.147 368.668 368.137 367.542 366.874 366.118 365.255 364.259 363.1 361.73 360.086 358.074 355.553 352.305 347.982 342.023 333.535 321.229 303.812 372.936 372.808 372.677 372.543 372.405 372.26 372.108 371.947 371.775 371.589 371.389 371.171 370.932 370.67 370.379 370.056 369.695 369.288 368.826 368.297 367.686 366.969 366.118 365.086 363.806 362.172 360.005 356.989 352.525 345.414 333.193 311.205 372.979 372.936 372.892 372.847 372.801 372.753 372.702 372.648 372.59 372.528 372.461 372.388 372.308 372.22 372.123 372.014 371.893 371.756 371.601 371.423 371.217 370.974 370.685 370.333 369.893 369.324 368.554 367.443 365.674 362.402 354.923 333.021 
