# vtk DataFile Version 3.0
flash 2d grid and solution
ASCII
DATASET RECTILINEAR_GRID
DIMENSIONS 33 33 1
X_COORDINATES 33 float
0 0.03125 0.0625 0.09375 0.125 0.15625 0.1875 0.21875 0.25 0.28125 0.3125 0.34375 0.375 0.40625 0.4375 0.46875 0.5 0.53125 0.5625 0.59375 0.625 0.65625 0.6875 0.71875 0.75 0.78125 0.8125 0.84375 0.875 0.90625 0.9375 0.96875 1 
Y_COORDINATES 33 float
0 0.03125 0.0625 0.09375 0.125 0.15625 0.1875 0.21875 0.25 0.28125 0.3125 0.34375 0.375 0.40625 0.4375 0.46875 0.5 0.53125 0.5625 0.59375 0.625 0.65625 0.6875 0.71875 0.75 0.78125 0.8125 0.84375 0.875 0.90625 0.9375 0.96875 1 
Z_COORDINATES 2 float
0.0 0.0
CELL_DATA 1024
FIELD FieldData 1
T 1 1024 float
372.979 372.936 372.892 372.847 372.801 372.753 372.702 372.648 372.59 372.528 372.461 372.388 372.308 372.22 372.123 372.014 371.893 371.756 371.601 371.423 371.216 370.974 370.685 370.332 369.892 369.324 368.554 367.443 365.674 362.402 354.923 333.021 372.936 372.807 372.677 372.543 372.405 372.26 372.108 371.947 371.774 371.589 371.389 371.17 370.932 370.669 370.379 370.056 369.695 369.288 368.826 368.297 367.685 366.969 366.117 365.085 363.806 362.172 360.005 356.988 352.525 345.414 333.193 311.205 372.894 372.681 372.465 372.244 372.014 371.775 371.524 371.257 370.972 370.665 370.334 369.973 369.579 369.146 368.668 368.136 367.542 366.874 366.117 365.254 364.259 363.099 361.73 360.086 358.074 355.553 352.304 347.981 342.022 333.535 321.228 303.812 372.853 372.558 372.259 371.952 371.634 371.303 370.954 370.585 370.19 369.766 369.308 368.81 368.266 367.669 367.009 366.278 365.463 364.548 363.516 362.342 360.997 359.44 357.617 355.454 352.851 349.661 345.679 340.61 334.048 325.475 314.374 300.626 372.814 372.44 372.06 371.671 371.268 370.848 370.406 369.938 369.438 368.902 368.322 367.693 367.006 366.253 365.423 364.505 363.483 362.34 361.056 359.603 357.947 356.046 353.843 351.264 348.214 344.562 340.139 334.732 328.085 319.944 310.167 298.942 372.776 372.327 371.87 371.403 370.919 370.415 369.884 369.323 368.724 368.08 367.386 366.634 365.813 364.914 363.926 362.834 361.624 360.275 358.764 357.065 355.142 352.953 350.444 347.547 344.178 340.233 335.585 330.093 323.616 316.05 307.409 297.917 372.741 372.22 371.692 371.151 370.591 370.007 369.394 368.745 368.052 367.31 366.509 365.642 364.697 363.665 362.532 361.283 359.903 358.37 356.662 354.752 352.604 350.181 347.433 344.302 340.719 336.606 331.875 326.441 320.234 313.232 305.5 297.234 372.708 372.122 371.527 370.917 370.287 369.63 368.94 368.21 367.431 366.598 365.699 364.727 363.67 362.516 361.253 359.864 358.333 356.641 354.763 352.674 350.343 347.733 344.804 341.508 337.791 333.596 328.869 323.561 317.647 311.143 304.126 296.752 372.678 372.032 371.376 370.704 370.009 369.286 368.526 367.722 366.866 365.95 364.963 363.897 362.739 361.477 360.099 358.587 356.926 355.096 353.075 350.839 348.36 345.606 342.543 339.134 335.339 331.12 326.444 321.288 315.652 309.567 303.109 296.399 372.652 371.951 371.241 370.513 369.761 368.978 368.156 367.287 366.362 365.372 364.307 363.158 361.912 360.556 359.077 357.46 355.688 353.743 351.603 349.247 346.651 343.787 340.628 337.146 333.312 329.102 324.498 319.494 314.104 308.364 302.343 296.136 372.628 371.881 371.123 370.346 369.545 368.709 367.833 366.907 365.922 364.868 363.737 362.516 361.194 359.758 358.194 356.488 354.624 352.583 350.347 347.896 345.209 342.263 339.037 335.509 331.661 327.477 322.951 318.087 312.906 307.444 301.762 295.937 372.608 371.821 371.023 370.205 369.361 368.482 367.56 366.586 365.55 364.443 363.255 361.975 360.589 359.087 357.454 355.675 353.735 351.618 349.306 346.781 344.026 341.02 337.748 334.194 330.345 326.194 321.742 316.999 311.988 306.745 301.323 295.787 372.592 371.773 370.942 370.091 369.213 368.298 367.339 366.326 365.249 364.1 362.866 361.538 360.102 358.547 356.858 355.022 353.024 350.848 348.478 345.898 343.092 340.044 336.741 333.173 329.33 325.212 320.824 316.179 311.301 306.225 300.999 295.677 372.58 371.736 370.881 370.005 369.1 368.159 367.171 366.129 365.022 363.84 362.573 361.208 359.735 358.14 356.411 354.532 352.491 350.272 347.86 345.24 342.399 339.323 336.001 332.425 328.592 324.501 320.163 315.591 310.811 305.856 300.769 295.599 372.572 371.712 370.839 369.946 369.025 368.065 367.059 365.997 364.87 363.666 362.376 360.988 359.489 357.868 356.112 354.205 352.136 349.889 347.449 344.804 341.941 338.847 335.514 331.935 328.109 324.039 319.734 315.212 310.496 305.619 300.622 295.549 372.568 371.699 370.819 369.917 368.987 368.018 367.003 365.931 364.793 363.579 362.277 360.877 359.366 357.732 355.962 354.042 351.958 349.697 347.245 344.587 341.713 338.611 335.273 331.693 327.871 323.811 319.524 315.026 310.342 305.504 300.55 295.525 372.568 371.699 370.819 369.917 368.987 368.018 367.003 365.931 364.793 363.579 362.277 360.877 359.366 357.732 355.962 354.042 351.958 349.697 347.245 344.587 341.713 338.611 335.273 331.693 327.871 323.811 319.524 315.026 310.342 305.504 300.55 295.525 372.572 371.712 370.839 369.946 369.025 368.065 367.059 365.997 364.87 363.666 362.376 360.988 359.489 357.868 356.112 354.205 352.136 349.889 347.449 344.804 341.941 338.847 335.514 331.935 328.109 324.039 319.734 315.212 310.496 305.619 300.622 295.549 372.58 371.736 370.881 370.005 369.1 368.159 367.171 366.129 365.022 363.84 362.573 361.208 359.735 358.14 356.411 354.532 352.491 350.272 347.86 345.24 342.399 339.323 336.001 332.425 328.592 324.501 320.163 315.591 310.811 305.856 300.769 295.599 372.592 371.773 370.942 370.091 369.213 368.298 367.339 366.326 365.249 364.1 362.866 361.538 360.102 358.547 356.858 355.022 353.024 350.848 348.478 345.898 343.092 340.044 336.741 333.173 329.33 325.212 320.824 316.179 311.301 306.225 300.999 295.677 372.608 371.821 371.023 370.205 369.361 368.482 367.56 366.586 365.55 364.443 363.255 361.975 360.589 359.087 357.454 355.675 353.735 351.618 349.306 346.781 344.026 341.02 337.748 334.194 330.345 326.194 321.742 316.999 311.988 306.745 301.323 295.787 372.628 371.881 371.123 370.346 369.545 368.709 367.833 366.907 365.922 364.868 363.737 362.516 361.194 359.758 358.194 356.488 354.624 352.583 350.347 347.896 345.209 342.263 339.037 335.509 331.661 327.477 322.951 318.087 312.906 307.444 301.762 295.937 372.652 371.951 371.241 370.513 369.761 368.978 368.156 367.287 366.362 365.372 364.307 363.158 361.912 360.556 359.077 357.46 355.688 353.743 351.603 349.247 346.651 343.787 340.628 337.146 333.312 329.102 324.498 319.494 314.104 308.364 302.343 296.136 372.678 372.032 371.376 370.704 370.009 369.286 368.526 367.722 366.866 365.95 364.963 363.897 362.739 361.477 360.099 358.587 356.926 355.096 353.075 350.839 348.36 345.606 342.543 339.134 335.339 331.12 326.444 321.288 315.652 309.567 303.109 296.399 372.708 372.122 371.527 370.917 370.287 369.63 368.94 368.21 367.431 366.598 365.699 364.727 363.67 362.516 361.253 359.864 358.333 356.641 354.763 352.674 350.343 347.733 344.804 341.508 337.791 333.596 328.869 323.561 317.647 311.143 304.126 296.752 372.741 372.22 371.692 371.151 370.591 370.007 369.394 368.745 368.052 367.31 366.509 365.642 364.697 363.665 362.532 361.283 359.903 358.37 356.662 354.752 352.604 350.181 347.433 344.302 340.719 336.606 331.875 326.441 320.234 313.232 305.5 297.234 372.776 372.327 371.87 371.403 370.919 370.415 369.884 369.323 368.724 368.08 367.386 366.634 365.813 364.914 363.926 362.834 361.624 360.275 358.764 357.065 355.142 352.953 350.444 347.547 344.178 340.233 335.585 330.093 323.616 316.05 307.409 297.917 372.814 372.44 372.06 371.671 371.268 370.848 370.406 369.938 369.438 368.902 368.322 367.693 367.006 366.253 365.423 364.505 363.483 362.34 361.056 359.603 357.947 356.046 353.843 351.264 348.214 344.562 340.139 334.732 328.085 319.944 310.167 298.942 372.853 372.558 372.259 371.952 371.634 371.303 370.954 370.585 370.19 369.766 369.308 368.81 368.266 367.669 367.009 366.278 365.463 364.548 363.516 362.342 360.997 359.44 357.617 355.454 352.851 349.661 345.679 340.61 334.048 325.475 314.374 300.626 372.894 372.681 372.465 372.244 372.014 371.775 371.524 371.257 370.972 370.665 370.334 369.973 369.579 369.146 368.668 368.136 367.542 366.874 366.117 365.254 364.259 363.099 361.73 360.086 358.074 355.553 352.304 347.981 342.022 333.535 321.228 303.812 372.936 372.807 372.677 372.543 372.405 372.26 372.108 371.947 371.774 371.589 371.389 371.17 370.932 370.669 370.379 370.056 369.695 369.288 368.826 368.297 367.685 366.969 366.117 365.085 363.806 362.172 360.005 356.988 352.525 345.414 333.193 311.205 372.979 372.936 372.892 372.847 372.801 372.753 372.702 372.648 372.59 372.528 372.461 372.388 372.308 372.22 372.123 372.014 371.893 371.756 371.601 371.423 371.216 370.974 370.685 370.332 369.892 369.324 368.554 367.443 365.674 362.402 354.923 333.021 
